LAMMPS Structure File written by MatSQ

1600 atoms

1 atom types

0 273.43662822112 xlo xhi
0 10.937465128845 ylo yhi
0 10.937465128845 zlo zhi
0 0 0 xy xz yz

Masses

1 28.0855

Atoms

1 1 4.1015494233168 1.3671831411056 1.3671831411056
2 1 1.3671831411056 4.1015494233168 1.3671831411056
3 1 1.3671831411056 1.3671831411056 4.1015494233168
4 1 4.1015494233168 4.1015494233168 4.1015494233168
5 1 2.7343662822112 0 0
6 1 0 2.7343662822112 0
7 1 0 0 2.7343662822112
8 1 2.7343662822112 2.7343662822112 2.7343662822112
9 1 4.1015494233168 1.3671831411056 6.8359157055281
10 1 1.3671831411056 4.1015494233168 6.8359157055281
11 1 1.3671831411056 1.3671831411056 9.5702819877393
12 1 4.1015494233168 4.1015494233168 9.5702819877393
13 1 2.7343662822112 0 5.4687325644225
14 1 0 2.7343662822112 5.4687325644225
15 1 0 0 8.2030988466337
16 1 2.7343662822112 2.7343662822112 8.2030988466337
17 1 4.1015494233168 6.8359157055281 1.3671831411056
18 1 1.3671831411056 9.5702819877393 1.3671831411056
19 1 1.3671831411056 6.8359157055281 4.1015494233168
20 1 4.1015494233168 9.5702819877393 4.1015494233168
21 1 2.7343662822112 5.4687325644225 0
22 1 0 8.2030988466337 0
23 1 0 5.4687325644225 2.7343662822112
24 1 2.7343662822112 8.2030988466337 2.7343662822112
25 1 4.1015494233168 6.8359157055281 6.8359157055281
26 1 1.3671831411056 9.5702819877393 6.8359157055281
27 1 1.3671831411056 6.8359157055281 9.5702819877393
28 1 4.1015494233168 9.5702819877393 9.5702819877393
29 1 2.7343662822112 5.4687325644225 5.4687325644225
30 1 0 8.2030988466337 5.4687325644225
31 1 0 5.4687325644225 8.2030988466337
32 1 2.7343662822112 8.2030988466337 8.2030988466337
33 1 9.5702819877393 1.3671831411056 1.3671831411056
34 1 6.8359157055281 4.1015494233168 1.3671831411056
35 1 6.8359157055281 1.3671831411056 4.1015494233168
36 1 9.5702819877393 4.1015494233168 4.1015494233168
37 1 8.2030988466337 0 0
38 1 5.4687325644225 2.7343662822112 0
39 1 5.4687325644225 0 2.7343662822112
40 1 8.2030988466337 2.7343662822112 2.7343662822112
41 1 9.5702819877393 1.3671831411056 6.8359157055281
42 1 6.8359157055281 4.1015494233168 6.8359157055281
43 1 6.8359157055281 1.3671831411056 9.5702819877393
44 1 9.5702819877393 4.1015494233168 9.5702819877393
45 1 8.2030988466337 0 5.4687325644225
46 1 5.4687325644225 2.7343662822112 5.4687325644225
47 1 5.4687325644225 0 8.2030988466337
48 1 8.2030988466337 2.7343662822112 8.2030988466337
49 1 9.5702819877393 6.8359157055281 1.3671831411056
50 1 6.8359157055281 9.5702819877393 1.3671831411056
51 1 6.8359157055281 6.8359157055281 4.1015494233168
52 1 9.5702819877393 9.5702819877393 4.1015494233168
53 1 8.2030988466337 5.4687325644225 0
54 1 5.4687325644225 8.2030988466337 0
55 1 5.4687325644225 5.4687325644225 2.7343662822112
56 1 8.2030988466337 8.2030988466337 2.7343662822112
57 1 9.5702819877393 6.8359157055281 6.8359157055281
58 1 6.8359157055281 9.5702819877393 6.8359157055281
59 1 6.8359157055281 6.8359157055281 9.5702819877393
60 1 9.5702819877393 9.5702819877393 9.5702819877393
61 1 8.2030988466337 5.4687325644225 5.4687325644225
62 1 5.4687325644225 8.2030988466337 5.4687325644225
63 1 5.4687325644225 5.4687325644225 8.2030988466337
64 1 8.2030988466337 8.2030988466337 8.2030988466337
65 1 15.039014552162 1.3671831411056 1.3671831411056
66 1 12.304648269951 4.1015494233168 1.3671831411056
67 1 12.304648269951 1.3671831411056 4.1015494233168
68 1 15.039014552162 4.1015494233168 4.1015494233168
69 1 13.671831411056 0 0
70 1 10.937465128845 2.7343662822112 0
71 1 10.937465128845 0 2.7343662822112
72 1 13.671831411056 2.7343662822112 2.7343662822112
73 1 15.039014552162 1.3671831411056 6.8359157055281
74 1 12.304648269951 4.1015494233168 6.8359157055281
75 1 12.304648269951 1.3671831411056 9.5702819877393
76 1 15.039014552162 4.1015494233168 9.5702819877393
77 1 13.671831411056 0 5.4687325644225
78 1 10.937465128845 2.7343662822112 5.4687325644225
79 1 10.937465128845 0 8.2030988466337
80 1 13.671831411056 2.7343662822112 8.2030988466337
81 1 15.039014552162 6.8359157055281 1.3671831411056
82 1 12.304648269951 9.5702819877393 1.3671831411056
83 1 12.304648269951 6.8359157055281 4.1015494233168
84 1 15.039014552162 9.5702819877393 4.1015494233168
85 1 13.671831411056 5.4687325644225 0
86 1 10.937465128845 8.2030988466337 0
87 1 10.937465128845 5.4687325644225 2.7343662822112
88 1 13.671831411056 8.2030988466337 2.7343662822112
89 1 15.039014552162 6.8359157055281 6.8359157055281
90 1 12.304648269951 9.5702819877393 6.8359157055281
91 1 12.304648269951 6.8359157055281 9.5702819877393
92 1 15.039014552162 9.5702819877393 9.5702819877393
93 1 13.671831411056 5.4687325644225 5.4687325644225
94 1 10.937465128845 8.2030988466337 5.4687325644225
95 1 10.937465128845 5.4687325644225 8.2030988466337
96 1 13.671831411056 8.2030988466337 8.2030988466337
97 1 20.507747116584 1.3671831411056 1.3671831411056
98 1 17.773380834373 4.1015494233168 1.3671831411056
99 1 17.773380834373 1.3671831411056 4.1015494233168
100 1 20.507747116584 4.1015494233168 4.1015494233168
101 1 19.140563975479 0 0
102 1 16.406197693267 2.7343662822112 0
103 1 16.406197693267 0 2.7343662822112
104 1 19.140563975479 2.7343662822112 2.7343662822112
105 1 20.507747116584 1.3671831411056 6.8359157055281
106 1 17.773380834373 4.1015494233168 6.8359157055281
107 1 17.773380834373 1.3671831411056 9.5702819877393
108 1 20.507747116584 4.1015494233168 9.5702819877393
109 1 19.140563975479 0 5.4687325644225
110 1 16.406197693267 2.7343662822112 5.4687325644225
111 1 16.406197693267 0 8.2030988466337
112 1 19.140563975479 2.7343662822112 8.2030988466337
113 1 20.507747116584 6.8359157055281 1.3671831411056
114 1 17.773380834373 9.5702819877393 1.3671831411056
115 1 17.773380834373 6.8359157055281 4.1015494233168
116 1 20.507747116584 9.5702819877393 4.1015494233168
117 1 19.140563975479 5.4687325644225 0
118 1 16.406197693267 8.2030988466337 0
119 1 16.406197693267 5.4687325644225 2.7343662822112
120 1 19.140563975479 8.2030988466337 2.7343662822112
121 1 20.507747116584 6.8359157055281 6.8359157055281
122 1 17.773380834373 9.5702819877393 6.8359157055281
123 1 17.773380834373 6.8359157055281 9.5702819877393
124 1 20.507747116584 9.5702819877393 9.5702819877393
125 1 19.140563975479 5.4687325644225 5.4687325644225
126 1 16.406197693267 8.2030988466337 5.4687325644225
127 1 16.406197693267 5.4687325644225 8.2030988466337
128 1 19.140563975479 8.2030988466337 8.2030988466337
129 1 25.976479681007 1.3671831411056 1.3671831411056
130 1 23.242113398795 4.1015494233168 1.3671831411056
131 1 23.242113398795 1.3671831411056 4.1015494233168
132 1 25.976479681007 4.1015494233168 4.1015494233168
133 1 24.609296539901 0 0
134 1 21.87493025769 2.7343662822112 0
135 1 21.87493025769 0 2.7343662822112
136 1 24.609296539901 2.7343662822112 2.7343662822112
137 1 25.976479681007 1.3671831411056 6.8359157055281
138 1 23.242113398795 4.1015494233168 6.8359157055281
139 1 23.242113398795 1.3671831411056 9.5702819877393
140 1 25.976479681007 4.1015494233168 9.5702819877393
141 1 24.609296539901 0 5.4687325644225
142 1 21.87493025769 2.7343662822112 5.4687325644225
143 1 21.87493025769 0 8.2030988466337
144 1 24.609296539901 2.7343662822112 8.2030988466337
145 1 25.976479681007 6.8359157055281 1.3671831411056
146 1 23.242113398795 9.5702819877393 1.3671831411056
147 1 23.242113398795 6.8359157055281 4.1015494233168
148 1 25.976479681007 9.5702819877393 4.1015494233168
149 1 24.609296539901 5.4687325644225 0
150 1 21.87493025769 8.2030988466337 0
151 1 21.87493025769 5.4687325644225 2.7343662822112
152 1 24.609296539901 8.2030988466337 2.7343662822112
153 1 25.976479681007 6.8359157055281 6.8359157055281
154 1 23.242113398795 9.5702819877393 6.8359157055281
155 1 23.242113398795 6.8359157055281 9.5702819877393
156 1 25.976479681007 9.5702819877393 9.5702819877393
157 1 24.609296539901 5.4687325644225 5.4687325644225
158 1 21.87493025769 8.2030988466337 5.4687325644225
159 1 21.87493025769 5.4687325644225 8.2030988466337
160 1 24.609296539901 8.2030988466337 8.2030988466337
161 1 31.445212245429 1.3671831411056 1.3671831411056
162 1 28.710845963218 4.1015494233168 1.3671831411056
163 1 28.710845963218 1.3671831411056 4.1015494233168
164 1 31.445212245429 4.1015494233168 4.1015494233168
165 1 30.078029104324 0 0
166 1 27.343662822112 2.7343662822112 0
167 1 27.343662822112 0 2.7343662822112
168 1 30.078029104324 2.7343662822112 2.7343662822112
169 1 31.445212245429 1.3671831411056 6.8359157055281
170 1 28.710845963218 4.1015494233168 6.8359157055281
171 1 28.710845963218 1.3671831411056 9.5702819877393
172 1 31.445212245429 4.1015494233168 9.5702819877393
173 1 30.078029104324 0 5.4687325644225
174 1 27.343662822112 2.7343662822112 5.4687325644225
175 1 27.343662822112 0 8.2030988466337
176 1 30.078029104324 2.7343662822112 8.2030988466337
177 1 31.445212245429 6.8359157055281 1.3671831411056
178 1 28.710845963218 9.5702819877393 1.3671831411056
179 1 28.710845963218 6.8359157055281 4.1015494233168
180 1 31.445212245429 9.5702819877393 4.1015494233168
181 1 30.078029104324 5.4687325644225 0
182 1 27.343662822112 8.2030988466337 0
183 1 27.343662822112 5.4687325644225 2.7343662822112
184 1 30.078029104324 8.2030988466337 2.7343662822112
185 1 31.445212245429 6.8359157055281 6.8359157055281
186 1 28.710845963218 9.5702819877393 6.8359157055281
187 1 28.710845963218 6.8359157055281 9.5702819877393
188 1 31.445212245429 9.5702819877393 9.5702819877393
189 1 30.078029104324 5.4687325644225 5.4687325644225
190 1 27.343662822112 8.2030988466337 5.4687325644225
191 1 27.343662822112 5.4687325644225 8.2030988466337
192 1 30.078029104324 8.2030988466337 8.2030988466337
193 1 36.913944809852 1.3671831411056 1.3671831411056
194 1 34.17957852764 4.1015494233168 1.3671831411056
195 1 34.17957852764 1.3671831411056 4.1015494233168
196 1 36.913944809852 4.1015494233168 4.1015494233168
197 1 35.546761668746 0 0
198 1 32.812395386535 2.7343662822112 0
199 1 32.812395386535 0 2.7343662822112
200 1 35.546761668746 2.7343662822112 2.7343662822112
201 1 36.913944809852 1.3671831411056 6.8359157055281
202 1 34.17957852764 4.1015494233168 6.8359157055281
203 1 34.17957852764 1.3671831411056 9.5702819877393
204 1 36.913944809852 4.1015494233168 9.5702819877393
205 1 35.546761668746 0 5.4687325644225
206 1 32.812395386535 2.7343662822112 5.4687325644225
207 1 32.812395386535 0 8.2030988466337
208 1 35.546761668746 2.7343662822112 8.2030988466337
209 1 36.913944809852 6.8359157055281 1.3671831411056
210 1 34.17957852764 9.5702819877393 1.3671831411056
211 1 34.17957852764 6.8359157055281 4.1015494233168
212 1 36.913944809852 9.5702819877393 4.1015494233168
213 1 35.546761668746 5.4687325644225 0
214 1 32.812395386535 8.2030988466337 0
215 1 32.812395386535 5.4687325644225 2.7343662822112
216 1 35.546761668746 8.2030988466337 2.7343662822112
217 1 36.913944809852 6.8359157055281 6.8359157055281
218 1 34.17957852764 9.5702819877393 6.8359157055281
219 1 34.17957852764 6.8359157055281 9.5702819877393
220 1 36.913944809852 9.5702819877393 9.5702819877393
221 1 35.546761668746 5.4687325644225 5.4687325644225
222 1 32.812395386535 8.2030988466337 5.4687325644225
223 1 32.812395386535 5.4687325644225 8.2030988466337
224 1 35.546761668746 8.2030988466337 8.2030988466337
225 1 42.382677374274 1.3671831411056 1.3671831411056
226 1 39.648311092063 4.1015494233168 1.3671831411056
227 1 39.648311092063 1.3671831411056 4.1015494233168
228 1 42.382677374274 4.1015494233168 4.1015494233168
229 1 41.015494233168 0 0
230 1 38.281127950957 2.7343662822112 0
231 1 38.281127950957 0 2.7343662822112
232 1 41.015494233168 2.7343662822112 2.7343662822112
233 1 42.382677374274 1.3671831411056 6.8359157055281
234 1 39.648311092063 4.1015494233168 6.8359157055281
235 1 39.648311092063 1.3671831411056 9.5702819877393
236 1 42.382677374274 4.1015494233168 9.5702819877393
237 1 41.015494233168 0 5.4687325644225
238 1 38.281127950957 2.7343662822112 5.4687325644225
239 1 38.281127950957 0 8.2030988466337
240 1 41.015494233168 2.7343662822112 8.2030988466337
241 1 42.382677374274 6.8359157055281 1.3671831411056
242 1 39.648311092063 9.5702819877393 1.3671831411056
243 1 39.648311092063 6.8359157055281 4.1015494233168
244 1 42.382677374274 9.5702819877393 4.1015494233168
245 1 41.015494233168 5.4687325644225 0
246 1 38.281127950957 8.2030988466337 0
247 1 38.281127950957 5.4687325644225 2.7343662822112
248 1 41.015494233168 8.2030988466337 2.7343662822112
249 1 42.382677374274 6.8359157055281 6.8359157055281
250 1 39.648311092063 9.5702819877393 6.8359157055281
251 1 39.648311092063 6.8359157055281 9.5702819877393
252 1 42.382677374274 9.5702819877393 9.5702819877393
253 1 41.015494233168 5.4687325644225 5.4687325644225
254 1 38.281127950957 8.2030988466337 5.4687325644225
255 1 38.281127950957 5.4687325644225 8.2030988466337
256 1 41.015494233168 8.2030988466337 8.2030988466337
257 1 47.851409938697 1.3671831411056 1.3671831411056
258 1 45.117043656485 4.1015494233168 1.3671831411056
259 1 45.117043656485 1.3671831411056 4.1015494233168
260 1 47.851409938697 4.1015494233168 4.1015494233168
261 1 46.484226797591 0 0
262 1 43.74986051538 2.7343662822112 0
263 1 43.74986051538 0 2.7343662822112
264 1 46.484226797591 2.7343662822112 2.7343662822112
265 1 47.851409938697 1.3671831411056 6.8359157055281
266 1 45.117043656485 4.1015494233168 6.8359157055281
267 1 45.117043656485 1.3671831411056 9.5702819877393
268 1 47.851409938697 4.1015494233168 9.5702819877393
269 1 46.484226797591 0 5.4687325644225
270 1 43.74986051538 2.7343662822112 5.4687325644225
271 1 43.74986051538 0 8.2030988466337
272 1 46.484226797591 2.7343662822112 8.2030988466337
273 1 47.851409938697 6.8359157055281 1.3671831411056
274 1 45.117043656485 9.5702819877393 1.3671831411056
275 1 45.117043656485 6.8359157055281 4.1015494233168
276 1 47.851409938697 9.5702819877393 4.1015494233168
277 1 46.484226797591 5.4687325644225 0
278 1 43.74986051538 8.2030988466337 0
279 1 43.74986051538 5.4687325644225 2.7343662822112
280 1 46.484226797591 8.2030988466337 2.7343662822112
281 1 47.851409938697 6.8359157055281 6.8359157055281
282 1 45.117043656485 9.5702819877393 6.8359157055281
283 1 45.117043656485 6.8359157055281 9.5702819877393
284 1 47.851409938697 9.5702819877393 9.5702819877393
285 1 46.484226797591 5.4687325644225 5.4687325644225
286 1 43.74986051538 8.2030988466337 5.4687325644225
287 1 43.74986051538 5.4687325644225 8.2030988466337
288 1 46.484226797591 8.2030988466337 8.2030988466337
289 1 53.320142503119 1.3671831411056 1.3671831411056
290 1 50.585776220908 4.1015494233168 1.3671831411056
291 1 50.585776220908 1.3671831411056 4.1015494233168
292 1 53.320142503119 4.1015494233168 4.1015494233168
293 1 51.952959362013 0 0
294 1 49.218593079802 2.7343662822112 0
295 1 49.218593079802 0 2.7343662822112
296 1 51.952959362013 2.7343662822112 2.7343662822112
297 1 53.320142503119 1.3671831411056 6.8359157055281
298 1 50.585776220908 4.1015494233168 6.8359157055281
299 1 50.585776220908 1.3671831411056 9.5702819877393
300 1 53.320142503119 4.1015494233168 9.5702819877393
301 1 51.952959362013 0 5.4687325644225
302 1 49.218593079802 2.7343662822112 5.4687325644225
303 1 49.218593079802 0 8.2030988466337
304 1 51.952959362013 2.7343662822112 8.2030988466337
305 1 53.320142503119 6.8359157055281 1.3671831411056
306 1 50.585776220908 9.5702819877393 1.3671831411056
307 1 50.585776220908 6.8359157055281 4.1015494233168
308 1 53.320142503119 9.5702819877393 4.1015494233168
309 1 51.952959362013 5.4687325644225 0
310 1 49.218593079802 8.2030988466337 0
311 1 49.218593079802 5.4687325644225 2.7343662822112
312 1 51.952959362013 8.2030988466337 2.7343662822112
313 1 53.320142503119 6.8359157055281 6.8359157055281
314 1 50.585776220908 9.5702819877393 6.8359157055281
315 1 50.585776220908 6.8359157055281 9.5702819877393
316 1 53.320142503119 9.5702819877393 9.5702819877393
317 1 51.952959362013 5.4687325644225 5.4687325644225
318 1 49.218593079802 8.2030988466337 5.4687325644225
319 1 49.218593079802 5.4687325644225 8.2030988466337
320 1 51.952959362013 8.2030988466337 8.2030988466337
321 1 58.788875067541 1.3671831411056 1.3671831411056
322 1 56.05450878533 4.1015494233168 1.3671831411056
323 1 56.05450878533 1.3671831411056 4.1015494233168
324 1 58.788875067541 4.1015494233168 4.1015494233168
325 1 57.421691926436 0 0
326 1 54.687325644225 2.7343662822112 0
327 1 54.687325644225 0 2.7343662822112
328 1 57.421691926436 2.7343662822112 2.7343662822112
329 1 58.788875067541 1.3671831411056 6.8359157055281
330 1 56.05450878533 4.1015494233168 6.8359157055281
331 1 56.05450878533 1.3671831411056 9.5702819877393
332 1 58.788875067541 4.1015494233168 9.5702819877393
333 1 57.421691926436 0 5.4687325644225
334 1 54.687325644225 2.7343662822112 5.4687325644225
335 1 54.687325644225 0 8.2030988466337
336 1 57.421691926436 2.7343662822112 8.2030988466337
337 1 58.788875067541 6.8359157055281 1.3671831411056
338 1 56.05450878533 9.5702819877393 1.3671831411056
339 1 56.05450878533 6.8359157055281 4.1015494233168
340 1 58.788875067541 9.5702819877393 4.1015494233168
341 1 57.421691926436 5.4687325644225 0
342 1 54.687325644225 8.2030988466337 0
343 1 54.687325644225 5.4687325644225 2.7343662822112
344 1 57.421691926436 8.2030988466337 2.7343662822112
345 1 58.788875067541 6.8359157055281 6.8359157055281
346 1 56.05450878533 9.5702819877393 6.8359157055281
347 1 56.05450878533 6.8359157055281 9.5702819877393
348 1 58.788875067541 9.5702819877393 9.5702819877393
349 1 57.421691926436 5.4687325644225 5.4687325644225
350 1 54.687325644225 8.2030988466337 5.4687325644225
351 1 54.687325644225 5.4687325644225 8.2030988466337
352 1 57.421691926436 8.2030988466337 8.2030988466337
353 1 64.257607631964 1.3671831411056 1.3671831411056
354 1 61.523241349753 4.1015494233168 1.3671831411056
355 1 61.523241349753 1.3671831411056 4.1015494233168
356 1 64.257607631964 4.1015494233168 4.1015494233168
357 1 62.890424490858 0 0
358 1 60.156058208647 2.7343662822112 0
359 1 60.156058208647 0 2.7343662822112
360 1 62.890424490858 2.7343662822112 2.7343662822112
361 1 64.257607631964 1.3671831411056 6.8359157055281
362 1 61.523241349753 4.1015494233168 6.8359157055281
363 1 61.523241349753 1.3671831411056 9.5702819877393
364 1 64.257607631964 4.1015494233168 9.5702819877393
365 1 62.890424490858 0 5.4687325644225
366 1 60.156058208647 2.7343662822112 5.4687325644225
367 1 60.156058208647 0 8.2030988466337
368 1 62.890424490858 2.7343662822112 8.2030988466337
369 1 64.257607631964 6.8359157055281 1.3671831411056
370 1 61.523241349753 9.5702819877393 1.3671831411056
371 1 61.523241349753 6.8359157055281 4.1015494233168
372 1 64.257607631964 9.5702819877393 4.1015494233168
373 1 62.890424490858 5.4687325644225 0
374 1 60.156058208647 8.2030988466337 0
375 1 60.156058208647 5.4687325644225 2.7343662822112
376 1 62.890424490858 8.2030988466337 2.7343662822112
377 1 64.257607631964 6.8359157055281 6.8359157055281
378 1 61.523241349753 9.5702819877393 6.8359157055281
379 1 61.523241349753 6.8359157055281 9.5702819877393
380 1 64.257607631964 9.5702819877393 9.5702819877393
381 1 62.890424490858 5.4687325644225 5.4687325644225
382 1 60.156058208647 8.2030988466337 5.4687325644225
383 1 60.156058208647 5.4687325644225 8.2030988466337
384 1 62.890424490858 8.2030988466337 8.2030988466337
385 1 69.726340196386 1.3671831411056 1.3671831411056
386 1 66.991973914175 4.1015494233168 1.3671831411056
387 1 66.991973914175 1.3671831411056 4.1015494233168
388 1 69.726340196386 4.1015494233168 4.1015494233168
389 1 68.359157055281 0 0
390 1 65.62479077307 2.7343662822112 0
391 1 65.62479077307 0 2.7343662822112
392 1 68.359157055281 2.7343662822112 2.7343662822112
393 1 69.726340196386 1.3671831411056 6.8359157055281
394 1 66.991973914175 4.1015494233168 6.8359157055281
395 1 66.991973914175 1.3671831411056 9.5702819877393
396 1 69.726340196386 4.1015494233168 9.5702819877393
397 1 68.359157055281 0 5.4687325644225
398 1 65.62479077307 2.7343662822112 5.4687325644225
399 1 65.62479077307 0 8.2030988466337
400 1 68.359157055281 2.7343662822112 8.2030988466337
401 1 69.726340196386 6.8359157055281 1.3671831411056
402 1 66.991973914175 9.5702819877393 1.3671831411056
403 1 66.991973914175 6.8359157055281 4.1015494233168
404 1 69.726340196386 9.5702819877393 4.1015494233168
405 1 68.359157055281 5.4687325644225 0
406 1 65.62479077307 8.2030988466337 0
407 1 65.62479077307 5.4687325644225 2.7343662822112
408 1 68.359157055281 8.2030988466337 2.7343662822112
409 1 69.726340196386 6.8359157055281 6.8359157055281
410 1 66.991973914175 9.5702819877393 6.8359157055281
411 1 66.991973914175 6.8359157055281 9.5702819877393
412 1 69.726340196386 9.5702819877393 9.5702819877393
413 1 68.359157055281 5.4687325644225 5.4687325644225
414 1 65.62479077307 8.2030988466337 5.4687325644225
415 1 65.62479077307 5.4687325644225 8.2030988466337
416 1 68.359157055281 8.2030988466337 8.2030988466337
417 1 75.195072760809 1.3671831411056 1.3671831411056
418 1 72.460706478598 4.1015494233168 1.3671831411056
419 1 72.460706478598 1.3671831411056 4.1015494233168
420 1 75.195072760809 4.1015494233168 4.1015494233168
421 1 73.827889619703 0 0
422 1 71.093523337492 2.7343662822112 0
423 1 71.093523337492 0 2.7343662822112
424 1 73.827889619703 2.7343662822112 2.7343662822112
425 1 75.195072760809 1.3671831411056 6.8359157055281
426 1 72.460706478598 4.1015494233168 6.8359157055281
427 1 72.460706478598 1.3671831411056 9.5702819877393
428 1 75.195072760809 4.1015494233168 9.5702819877393
429 1 73.827889619703 0 5.4687325644225
430 1 71.093523337492 2.7343662822112 5.4687325644225
431 1 71.093523337492 0 8.2030988466337
432 1 73.827889619703 2.7343662822112 8.2030988466337
433 1 75.195072760809 6.8359157055281 1.3671831411056
434 1 72.460706478598 9.5702819877393 1.3671831411056
435 1 72.460706478598 6.8359157055281 4.1015494233168
436 1 75.195072760809 9.5702819877393 4.1015494233168
437 1 73.827889619703 5.4687325644225 0
438 1 71.093523337492 8.2030988466337 0
439 1 71.093523337492 5.4687325644225 2.7343662822112
440 1 73.827889619703 8.2030988466337 2.7343662822112
441 1 75.195072760809 6.8359157055281 6.8359157055281
442 1 72.460706478598 9.5702819877393 6.8359157055281
443 1 72.460706478598 6.8359157055281 9.5702819877393
444 1 75.195072760809 9.5702819877393 9.5702819877393
445 1 73.827889619703 5.4687325644225 5.4687325644225
446 1 71.093523337492 8.2030988466337 5.4687325644225
447 1 71.093523337492 5.4687325644225 8.2030988466337
448 1 73.827889619703 8.2030988466337 8.2030988466337
449 1 80.663805325231 1.3671831411056 1.3671831411056
450 1 77.92943904302 4.1015494233168 1.3671831411056
451 1 77.92943904302 1.3671831411056 4.1015494233168
452 1 80.663805325231 4.1015494233168 4.1015494233168
453 1 79.296622184126 0 0
454 1 76.562255901914 2.7343662822112 0
455 1 76.562255901914 0 2.7343662822112
456 1 79.296622184126 2.7343662822112 2.7343662822112
457 1 80.663805325231 1.3671831411056 6.8359157055281
458 1 77.92943904302 4.1015494233168 6.8359157055281
459 1 77.92943904302 1.3671831411056 9.5702819877393
460 1 80.663805325231 4.1015494233168 9.5702819877393
461 1 79.296622184126 0 5.4687325644225
462 1 76.562255901914 2.7343662822112 5.4687325644225
463 1 76.562255901914 0 8.2030988466337
464 1 79.296622184126 2.7343662822112 8.2030988466337
465 1 80.663805325231 6.8359157055281 1.3671831411056
466 1 77.92943904302 9.5702819877393 1.3671831411056
467 1 77.92943904302 6.8359157055281 4.1015494233168
468 1 80.663805325231 9.5702819877393 4.1015494233168
469 1 79.296622184126 5.4687325644225 0
470 1 76.562255901914 8.2030988466337 0
471 1 76.562255901914 5.4687325644225 2.7343662822112
472 1 79.296622184126 8.2030988466337 2.7343662822112
473 1 80.663805325231 6.8359157055281 6.8359157055281
474 1 77.92943904302 9.5702819877393 6.8359157055281
475 1 77.92943904302 6.8359157055281 9.5702819877393
476 1 80.663805325231 9.5702819877393 9.5702819877393
477 1 79.296622184126 5.4687325644225 5.4687325644225
478 1 76.562255901914 8.2030988466337 5.4687325644225
479 1 76.562255901914 5.4687325644225 8.2030988466337
480 1 79.296622184126 8.2030988466337 8.2030988466337
481 1 86.132537889654 1.3671831411056 1.3671831411056
482 1 83.398171607443 4.1015494233168 1.3671831411056
483 1 83.398171607443 1.3671831411056 4.1015494233168
484 1 86.132537889654 4.1015494233168 4.1015494233168
485 1 84.765354748548 0 0
486 1 82.030988466337 2.7343662822112 0
487 1 82.030988466337 0 2.7343662822112
488 1 84.765354748548 2.7343662822112 2.7343662822112
489 1 86.132537889654 1.3671831411056 6.8359157055281
490 1 83.398171607443 4.1015494233168 6.8359157055281
491 1 83.398171607443 1.3671831411056 9.5702819877393
492 1 86.132537889654 4.1015494233168 9.5702819877393
493 1 84.765354748548 0 5.4687325644225
494 1 82.030988466337 2.7343662822112 5.4687325644225
495 1 82.030988466337 0 8.2030988466337
496 1 84.765354748548 2.7343662822112 8.2030988466337
497 1 86.132537889654 6.8359157055281 1.3671831411056
498 1 83.398171607443 9.5702819877393 1.3671831411056
499 1 83.398171607443 6.8359157055281 4.1015494233168
500 1 86.132537889654 9.5702819877393 4.1015494233168
501 1 84.765354748548 5.4687325644225 0
502 1 82.030988466337 8.2030988466337 0
503 1 82.030988466337 5.4687325644225 2.7343662822112
504 1 84.765354748548 8.2030988466337 2.7343662822112
505 1 86.132537889654 6.8359157055281 6.8359157055281
506 1 83.398171607443 9.5702819877393 6.8359157055281
507 1 83.398171607443 6.8359157055281 9.5702819877393
508 1 86.132537889654 9.5702819877393 9.5702819877393
509 1 84.765354748548 5.4687325644225 5.4687325644225
510 1 82.030988466337 8.2030988466337 5.4687325644225
511 1 82.030988466337 5.4687325644225 8.2030988466337
512 1 84.765354748548 8.2030988466337 8.2030988466337
513 1 91.601270454076 1.3671831411056 1.3671831411056
514 1 88.866904171865 4.1015494233168 1.3671831411056
515 1 88.866904171865 1.3671831411056 4.1015494233168
516 1 91.601270454076 4.1015494233168 4.1015494233168
517 1 90.234087312971 0 0
518 1 87.499721030759 2.7343662822112 0
519 1 87.499721030759 0 2.7343662822112
520 1 90.234087312971 2.7343662822112 2.7343662822112
521 1 91.601270454076 1.3671831411056 6.8359157055281
522 1 88.866904171865 4.1015494233168 6.8359157055281
523 1 88.866904171865 1.3671831411056 9.5702819877393
524 1 91.601270454076 4.1015494233168 9.5702819877393
525 1 90.234087312971 0 5.4687325644225
526 1 87.499721030759 2.7343662822112 5.4687325644225
527 1 87.499721030759 0 8.2030988466337
528 1 90.234087312971 2.7343662822112 8.2030988466337
529 1 91.601270454076 6.8359157055281 1.3671831411056
530 1 88.866904171865 9.5702819877393 1.3671831411056
531 1 88.866904171865 6.8359157055281 4.1015494233168
532 1 91.601270454076 9.5702819877393 4.1015494233168
533 1 90.234087312971 5.4687325644225 0
534 1 87.499721030759 8.2030988466337 0
535 1 87.499721030759 5.4687325644225 2.7343662822112
536 1 90.234087312971 8.2030988466337 2.7343662822112
537 1 91.601270454076 6.8359157055281 6.8359157055281
538 1 88.866904171865 9.5702819877393 6.8359157055281
539 1 88.866904171865 6.8359157055281 9.5702819877393
540 1 91.601270454076 9.5702819877393 9.5702819877393
541 1 90.234087312971 5.4687325644225 5.4687325644225
542 1 87.499721030759 8.2030988466337 5.4687325644225
543 1 87.499721030759 5.4687325644225 8.2030988466337
544 1 90.234087312971 8.2030988466337 8.2030988466337
545 1 97.070003018499 1.3671831411056 1.3671831411056
546 1 94.335636736288 4.1015494233168 1.3671831411056
547 1 94.335636736288 1.3671831411056 4.1015494233168
548 1 97.070003018499 4.1015494233168 4.1015494233168
549 1 95.702819877393 0 0
550 1 92.968453595182 2.7343662822112 0
551 1 92.968453595182 0 2.7343662822112
552 1 95.702819877393 2.7343662822112 2.7343662822112
553 1 97.070003018499 1.3671831411056 6.8359157055281
554 1 94.335636736288 4.1015494233168 6.8359157055281
555 1 94.335636736288 1.3671831411056 9.5702819877393
556 1 97.070003018499 4.1015494233168 9.5702819877393
557 1 95.702819877393 0 5.4687325644225
558 1 92.968453595182 2.7343662822112 5.4687325644225
559 1 92.968453595182 0 8.2030988466337
560 1 95.702819877393 2.7343662822112 8.2030988466337
561 1 97.070003018499 6.8359157055281 1.3671831411056
562 1 94.335636736288 9.5702819877393 1.3671831411056
563 1 94.335636736288 6.8359157055281 4.1015494233168
564 1 97.070003018499 9.5702819877393 4.1015494233168
565 1 95.702819877393 5.4687325644225 0
566 1 92.968453595182 8.2030988466337 0
567 1 92.968453595182 5.4687325644225 2.7343662822112
568 1 95.702819877393 8.2030988466337 2.7343662822112
569 1 97.070003018499 6.8359157055281 6.8359157055281
570 1 94.335636736288 9.5702819877393 6.8359157055281
571 1 94.335636736288 6.8359157055281 9.5702819877393
572 1 97.070003018499 9.5702819877393 9.5702819877393
573 1 95.702819877393 5.4687325644225 5.4687325644225
574 1 92.968453595182 8.2030988466337 5.4687325644225
575 1 92.968453595182 5.4687325644225 8.2030988466337
576 1 95.702819877393 8.2030988466337 8.2030988466337
577 1 102.53873558292 1.3671831411056 1.3671831411056
578 1 99.80436930071 4.1015494233168 1.3671831411056
579 1 99.80436930071 1.3671831411056 4.1015494233168
580 1 102.53873558292 4.1015494233168 4.1015494233168
581 1 101.17155244182 0 0
582 1 98.437186159604 2.7343662822112 0
583 1 98.437186159604 0 2.7343662822112
584 1 101.17155244182 2.7343662822112 2.7343662822112
585 1 102.53873558292 1.3671831411056 6.8359157055281
586 1 99.80436930071 4.1015494233168 6.8359157055281
587 1 99.80436930071 1.3671831411056 9.5702819877393
588 1 102.53873558292 4.1015494233168 9.5702819877393
589 1 101.17155244182 0 5.4687325644225
590 1 98.437186159604 2.7343662822112 5.4687325644225
591 1 98.437186159604 0 8.2030988466337
592 1 101.17155244182 2.7343662822112 8.2030988466337
593 1 102.53873558292 6.8359157055281 1.3671831411056
594 1 99.80436930071 9.5702819877393 1.3671831411056
595 1 99.80436930071 6.8359157055281 4.1015494233168
596 1 102.53873558292 9.5702819877393 4.1015494233168